Crystalline Al atoms - written for EnCodeVentor tutorial

1728 atoms
1 atom types
0.0 80.92 xlo xhi
0.0 80.92 ylo yhi
0.0 80.92 zlo zhi

Atoms

1 1 0.0 -10.5118163511 -6.069
2 1 2.023 -8.75984695928 -5.0575
3 1 2.023 -11.5233163511 -4.31703060814
4 1 0.0 -9.77134695928 -3.30553060814
5 1 0.0 -12.5348163511 -2.56506121629
6 1 2.023 -10.7828469593 -1.55356121629
7 1 2.023 -13.5463163511 -0.813091824432
8 1 0.0 -11.7943469593 0.198408175568
9 1 0.0 -14.5578163511 0.938877567424
10 1 2.023 -12.8058469593 1.95037756742
11 1 2.023 -15.5693163511 2.69084695928
12 1 0.0 -13.8173469593 3.70234695928
13 1 0.0 -16.5808163511 4.44281635114
14 1 2.023 -14.8288469593 5.45431635114
15 1 2.023 -17.5923163511 6.19478574299
16 1 0.0 -15.8403469593 7.20628574299
17 1 0.0 -18.6038163511 7.94675513485
18 1 2.023 -16.8518469593 8.95825513485
19 1 2.023 -19.6153163511 9.6987245267
20 1 0.0 -17.8633469593 10.7102245267
21 1 0.0 -20.6268163511 11.4506939186
22 1 2.023 -18.8748469593 12.4621939186
23 1 2.023 -21.6383163511 13.2026633104
24 1 0.0 -19.8863469593 14.2141633104
25 1 0.0 -22.6498163511 14.9546327023
26 1 2.023 -20.8978469593 15.9661327023
27 1 2.023 -23.6613163511 16.7066020941
28 1 0.0 -21.9093469593 17.7181020941
29 1 0.0 -24.6728163511 18.458571486
30 1 2.023 -22.9208469593 19.470071486
31 1 2.023 -25.6843163511 20.2105408778
32 1 0.0 -23.9323469593 21.2220408778
33 1 0.0 -7.00787756742 -4.046
34 1 2.023 -5.25590817557 -3.0345
35 1 2.023 -8.01937756742 -2.29403060814
36 1 0.0 -6.26740817557 -1.28253060814
37 1 0.0 -9.03087756742 -0.542061216288
38 1 2.023 -7.27890817557 0.469438783712
39 1 2.023 -10.0423775674 1.20990817557
40 1 0.0 -8.29040817557 2.22140817557
41 1 0.0 -11.0538775674 2.96187756742
42 1 2.023 -9.30190817557 3.97337756742
43 1 2.023 -12.0653775674 4.71384695928
44 1 0.0 -10.3134081756 5.72534695928
45 1 0.0 -13.0768775674 6.46581635114
46 1 2.023 -11.3249081756 7.47731635114
47 1 2.023 -14.0883775674 8.21778574299
48 1 0.0 -12.3364081756 9.22928574299
49 1 0.0 -15.0998775674 9.96975513485
50 1 2.023 -13.3479081756 10.9812551348
51 1 2.023 -16.1113775674 11.7217245267
52 1 0.0 -14.3594081756 12.7332245267
53 1 0.0 -17.1228775674 13.4736939186
54 1 2.023 -15.3709081756 14.4851939186
55 1 2.023 -18.1343775674 15.2256633104
56 1 0.0 -16.3824081756 16.2371633104
57 1 0.0 -19.1458775674 16.9776327023
58 1 2.023 -17.3939081756 17.9891327023
59 1 2.023 -20.1573775674 18.7296020941
60 1 0.0 -18.4054081756 19.7411020941
61 1 0.0 -21.1688775674 20.481571486
62 1 2.023 -19.4169081756 21.493071486
63 1 2.023 -22.1803775674 22.2335408778
64 1 0.0 -20.4284081756 23.2450408778
65 1 0.0 -3.50393878371 -2.023
66 1 2.023 -1.75196939186 -1.0115
67 1 2.023 -4.51543878371 -0.271030608144
68 1 0.0 -2.76346939186 0.740469391856
69 1 0.0 -5.52693878371 1.48093878371
70 1 2.023 -3.77496939186 2.49243878371
71 1 2.023 -6.53843878371 3.23290817557
72 1 0.0 -4.78646939186 4.24440817557
73 1 0.0 -7.54993878371 4.98487756742
74 1 2.023 -5.79796939186 5.99637756742
75 1 2.023 -8.56143878371 6.73684695928
76 1 0.0 -6.80946939186 7.74834695928
77 1 0.0 -9.57293878371 8.48881635114
78 1 2.023 -7.82096939186 9.50031635114
79 1 2.023 -10.5844387837 10.240785743
80 1 0.0 -8.83246939186 11.252285743
81 1 0.0 -11.5959387837 11.9927551348
82 1 2.023 -9.84396939186 13.0042551348
83 1 2.023 -12.6074387837 13.7447245267
84 1 0.0 -10.8554693919 14.7562245267
85 1 0.0 -13.6189387837 15.4966939186
86 1 2.023 -11.8669693919 16.5081939186
87 1 2.023 -14.6304387837 17.2486633104
88 1 0.0 -12.8784693919 18.2601633104
89 1 0.0 -15.6419387837 19.0006327023
90 1 2.023 -13.8899693919 20.0121327023
91 1 2.023 -16.6534387837 20.7526020941
92 1 0.0 -14.9014693919 21.7641020941
93 1 0.0 -17.6649387837 22.504571486
94 1 2.023 -15.9129693919 23.516071486
95 1 2.023 -18.6764387837 24.2565408778
96 1 0.0 -16.9244693919 25.2680408778
97 1 0.0 0.0 0.0
98 1 2.023 1.75196939186 1.0115
99 1 2.023 -1.0115 1.75196939186
100 1 0.0 0.740469391856 2.76346939186
101 1 0.0 -2.023 3.50393878371
102 1 2.023 -0.271030608144 4.51543878371
103 1 2.023 -3.0345 5.25590817557
104 1 0.0 -1.28253060814 6.26740817557
105 1 0.0 -4.046 7.00787756742
106 1 2.023 -2.29403060814 8.01937756742
107 1 2.023 -5.0575 8.75984695928
108 1 0.0 -3.30553060814 9.77134695928
109 1 0.0 -6.069 10.5118163511
110 1 2.023 -4.31703060814 11.5233163511
111 1 2.023 -7.0805 12.263785743
112 1 0.0 -5.32853060814 13.275285743
113 1 0.0 -8.092 14.0157551348
114 1 2.023 -6.34003060814 15.0272551348
115 1 2.023 -9.1035 15.7677245267
116 1 0.0 -7.35153060814 16.7792245267
117 1 0.0 -10.115 17.5196939186
118 1 2.023 -8.36303060814 18.5311939186
119 1 2.023 -11.1265 19.2716633104
120 1 0.0 -9.37453060814 20.2831633104
121 1 0.0 -12.138 21.0236327023
122 1 2.023 -10.3860306081 22.0351327023
123 1 2.023 -13.1495 22.7756020941
124 1 0.0 -11.3975306081 23.7871020941
125 1 0.0 -14.161 24.527571486
126 1 2.023 -12.4090306081 25.539071486
127 1 2.023 -15.1725 26.2795408778
128 1 0.0 -13.4205306081 27.2910408778
129 1 0.0 3.50393878371 2.023
130 1 2.023 5.25590817557 3.0345
131 1 2.023 2.49243878371 3.77496939186
132 1 0.0 4.24440817557 4.78646939186
133 1 0.0 1.48093878371 5.52693878371
134 1 2.023 3.23290817557 6.53843878371
135 1 2.023 0.469438783712 7.27890817557
136 1 0.0 2.22140817557 8.29040817557
137 1 0.0 -0.542061216288 9.03087756742
138 1 2.023 1.20990817557 10.0423775674
139 1 2.023 -1.55356121629 10.7828469593
140 1 0.0 0.198408175568 11.7943469593
141 1 0.0 -2.56506121629 12.5348163511
142 1 2.023 -0.813091824432 13.5463163511
143 1 2.023 -3.57656121629 14.286785743
144 1 0.0 -1.82459182443 15.298285743
145 1 0.0 -4.58806121629 16.0387551348
146 1 2.023 -2.83609182443 17.0502551348
147 1 2.023 -5.59956121629 17.7907245267
148 1 0.0 -3.84759182443 18.8022245267
149 1 0.0 -6.61106121629 19.5426939186
150 1 2.023 -4.85909182443 20.5541939186
151 1 2.023 -7.62256121629 21.2946633104
152 1 0.0 -5.87059182443 22.3061633104
153 1 0.0 -8.63406121629 23.0466327023
154 1 2.023 -6.88209182443 24.0581327023
155 1 2.023 -9.64556121629 24.7986020941
156 1 0.0 -7.89359182443 25.8101020941
157 1 0.0 -10.6570612163 26.550571486
158 1 2.023 -8.90509182443 27.562071486
159 1 2.023 -11.6685612163 28.3025408778
160 1 0.0 -9.91659182443 29.3140408778
161 1 0.0 7.00787756742 4.046
162 1 2.023 8.75984695928 5.0575
163 1 2.023 5.99637756742 5.79796939186
164 1 0.0 7.74834695928 6.80946939186
165 1 0.0 4.98487756742 7.54993878371
166 1 2.023 6.73684695928 8.56143878371
167 1 2.023 3.97337756742 9.30190817557
168 1 0.0 5.72534695928 10.3134081756
169 1 0.0 2.96187756742 11.0538775674
170 1 2.023 4.71384695928 12.0653775674
171 1 2.023 1.95037756742 12.8058469593
172 1 0.0 3.70234695928 13.8173469593
173 1 0.0 0.938877567424 14.5578163511
174 1 2.023 2.69084695928 15.5693163511
175 1 2.023 -0.0726224325763 16.309785743
176 1 0.0 1.67934695928 17.321285743
177 1 0.0 -1.08412243258 18.0617551348
178 1 2.023 0.66784695928 19.0732551348
179 1 2.023 -2.09562243258 19.8137245267
180 1 0.0 -0.34365304072 20.8252245267
181 1 0.0 -3.10712243258 21.5656939186
182 1 2.023 -1.35515304072 22.5771939186
183 1 2.023 -4.11862243258 23.3176633104
184 1 0.0 -2.36665304072 24.3291633104
185 1 0.0 -5.13012243258 25.0696327023
186 1 2.023 -3.37815304072 26.0811327023
187 1 2.023 -6.14162243258 26.8216020941
188 1 0.0 -4.38965304072 27.8331020941
189 1 0.0 -7.15312243258 28.573571486
190 1 2.023 -5.40115304072 29.585071486
191 1 2.023 -8.16462243258 30.3255408778
192 1 0.0 -6.41265304072 31.3370408778
193 1 0.0 10.5118163511 6.069
194 1 2.023 12.263785743 7.0805
195 1 2.023 9.50031635114 7.82096939186
196 1 0.0 11.252285743 8.83246939186
197 1 0.0 8.48881635114 9.57293878371
198 1 2.023 10.240785743 10.5844387837
199 1 2.023 7.47731635114 11.3249081756
200 1 0.0 9.22928574299 12.3364081756
201 1 0.0 6.46581635114 13.0768775674
202 1 2.023 8.21778574299 14.0883775674
203 1 2.023 5.45431635114 14.8288469593
204 1 0.0 7.20628574299 15.8403469593
205 1 0.0 4.44281635114 16.5808163511
206 1 2.023 6.19478574299 17.5923163511
207 1 2.023 3.43131635114 18.332785743
208 1 0.0 5.18328574299 19.344285743
209 1 0.0 2.41981635114 20.0847551348
210 1 2.023 4.17178574299 21.0962551348
211 1 2.023 1.40831635114 21.8367245267
212 1 0.0 3.16028574299 22.8482245267
213 1 0.0 0.396816351136 23.5886939186
214 1 2.023 2.14878574299 24.6001939186
215 1 2.023 -0.614683648864 25.3406633104
216 1 0.0 1.13728574299 26.3521633104
217 1 0.0 -1.62618364886 27.0926327023
218 1 2.023 0.125785742991 28.1041327023
219 1 2.023 -2.63768364886 28.8446020941
220 1 0.0 -0.885714257009 29.8561020941
221 1 0.0 -3.64918364886 30.596571486
222 1 2.023 -1.89721425701 31.608071486
223 1 2.023 -4.66068364886 32.3485408778
224 1 0.0 -2.90871425701 33.3600408778
225 1 0.0 14.0157551348 8.092
226 1 2.023 15.7677245267 9.1035
227 1 2.023 13.0042551348 9.84396939186
228 1 0.0 14.7562245267 10.8554693919
229 1 0.0 11.9927551348 11.5959387837
230 1 2.023 13.7447245267 12.6074387837
231 1 2.023 10.9812551348 13.3479081756
232 1 0.0 12.7332245267 14.3594081756
233 1 0.0 9.96975513485 15.0998775674
234 1 2.023 11.7217245267 16.1113775674
235 1 2.023 8.95825513485 16.8518469593
236 1 0.0 10.7102245267 17.8633469593
237 1 0.0 7.94675513485 18.6038163511
238 1 2.023 9.6987245267 19.6153163511
239 1 2.023 6.93525513485 20.355785743
240 1 0.0 8.6872245267 21.367285743
241 1 0.0 5.92375513485 22.1077551348
242 1 2.023 7.6757245267 23.1192551348
243 1 2.023 4.91225513485 23.8597245267
244 1 0.0 6.6642245267 24.8712245267
245 1 0.0 3.90075513485 25.6116939186
246 1 2.023 5.6527245267 26.6231939186
247 1 2.023 2.88925513485 27.3636633104
248 1 0.0 4.6412245267 28.3751633104
249 1 0.0 1.87775513485 29.1156327023
250 1 2.023 3.6297245267 30.1271327023
251 1 2.023 0.866255134847 30.8676020941
252 1 0.0 2.6182245267 31.8791020941
253 1 0.0 -0.145244865153 32.619571486
254 1 2.023 1.6067245267 33.631071486
255 1 2.023 -1.15674486515 34.3715408778
256 1 0.0 0.595224526703 35.3830408778
257 1 0.0 17.5196939186 10.115
258 1 2.023 19.2716633104 11.1265
259 1 2.023 16.5081939186 11.8669693919
260 1 0.0 18.2601633104 12.8784693919
261 1 0.0 15.4966939186 13.6189387837
262 1 2.023 17.2486633104 14.6304387837
263 1 2.023 14.4851939186 15.3709081756
264 1 0.0 16.2371633104 16.3824081756
265 1 0.0 13.4736939186 17.1228775674
266 1 2.023 15.2256633104 18.1343775674
267 1 2.023 12.4621939186 18.8748469593
268 1 0.0 14.2141633104 19.8863469593
269 1 0.0 11.4506939186 20.6268163511
270 1 2.023 13.2026633104 21.6383163511
271 1 2.023 10.4391939186 22.378785743
272 1 0.0 12.1911633104 23.390285743
273 1 0.0 9.42769391856 24.1307551348
274 1 2.023 11.1796633104 25.1422551348
275 1 2.023 8.41619391856 25.8827245267
276 1 0.0 10.1681633104 26.8942245267
277 1 0.0 7.40469391856 27.6346939186
278 1 2.023 9.15666331042 28.6461939186
279 1 2.023 6.39319391856 29.3866633104
280 1 0.0 8.14516331042 30.3981633104
281 1 0.0 5.38169391856 31.1386327023
282 1 2.023 7.13366331042 32.1501327023
283 1 2.023 4.37019391856 32.8906020941
284 1 0.0 6.12216331042 33.9021020941
285 1 0.0 3.35869391856 34.642571486
286 1 2.023 5.11066331042 35.654071486
287 1 2.023 2.34719391856 36.3945408778
288 1 0.0 4.09916331042 37.4060408778
289 1 4.046 -10.5118163511 -6.069
290 1 6.069 -8.75984695928 -5.0575
291 1 6.069 -11.5233163511 -4.31703060814
292 1 4.046 -9.77134695928 -3.30553060814
293 1 4.046 -12.5348163511 -2.56506121629
294 1 6.069 -10.7828469593 -1.55356121629
295 1 6.069 -13.5463163511 -0.813091824432
296 1 4.046 -11.7943469593 0.198408175568
297 1 4.046 -14.5578163511 0.938877567424
298 1 6.069 -12.8058469593 1.95037756742
299 1 6.069 -15.5693163511 2.69084695928
300 1 4.046 -13.8173469593 3.70234695928
301 1 4.046 -16.5808163511 4.44281635114
302 1 6.069 -14.8288469593 5.45431635114
303 1 6.069 -17.5923163511 6.19478574299
304 1 4.046 -15.8403469593 7.20628574299
305 1 4.046 -18.6038163511 7.94675513485
306 1 6.069 -16.8518469593 8.95825513485
307 1 6.069 -19.6153163511 9.6987245267
308 1 4.046 -17.8633469593 10.7102245267
309 1 4.046 -20.6268163511 11.4506939186
310 1 6.069 -18.8748469593 12.4621939186
311 1 6.069 -21.6383163511 13.2026633104
312 1 4.046 -19.8863469593 14.2141633104
313 1 4.046 -22.6498163511 14.9546327023
314 1 6.069 -20.8978469593 15.9661327023
315 1 6.069 -23.6613163511 16.7066020941
316 1 4.046 -21.9093469593 17.7181020941
317 1 4.046 -24.6728163511 18.458571486
318 1 6.069 -22.9208469593 19.470071486
319 1 6.069 -25.6843163511 20.2105408778
320 1 4.046 -23.9323469593 21.2220408778
321 1 4.046 -7.00787756742 -4.046
322 1 6.069 -5.25590817557 -3.0345
323 1 6.069 -8.01937756742 -2.29403060814
324 1 4.046 -6.26740817557 -1.28253060814
325 1 4.046 -9.03087756742 -0.542061216288
326 1 6.069 -7.27890817557 0.469438783712
327 1 6.069 -10.0423775674 1.20990817557
328 1 4.046 -8.29040817557 2.22140817557
329 1 4.046 -11.0538775674 2.96187756742
330 1 6.069 -9.30190817557 3.97337756742
331 1 6.069 -12.0653775674 4.71384695928
332 1 4.046 -10.3134081756 5.72534695928
333 1 4.046 -13.0768775674 6.46581635114
334 1 6.069 -11.3249081756 7.47731635114
335 1 6.069 -14.0883775674 8.21778574299
336 1 4.046 -12.3364081756 9.22928574299
337 1 4.046 -15.0998775674 9.96975513485
338 1 6.069 -13.3479081756 10.9812551348
339 1 6.069 -16.1113775674 11.7217245267
340 1 4.046 -14.3594081756 12.7332245267
341 1 4.046 -17.1228775674 13.4736939186
342 1 6.069 -15.3709081756 14.4851939186
343 1 6.069 -18.1343775674 15.2256633104
344 1 4.046 -16.3824081756 16.2371633104
345 1 4.046 -19.1458775674 16.9776327023
346 1 6.069 -17.3939081756 17.9891327023
347 1 6.069 -20.1573775674 18.7296020941
348 1 4.046 -18.4054081756 19.7411020941
349 1 4.046 -21.1688775674 20.481571486
350 1 6.069 -19.4169081756 21.493071486
351 1 6.069 -22.1803775674 22.2335408778
352 1 4.046 -20.4284081756 23.2450408778
353 1 4.046 -3.50393878371 -2.023
354 1 6.069 -1.75196939186 -1.0115
355 1 6.069 -4.51543878371 -0.271030608144
356 1 4.046 -2.76346939186 0.740469391856
357 1 4.046 -5.52693878371 1.48093878371
358 1 6.069 -3.77496939186 2.49243878371
359 1 6.069 -6.53843878371 3.23290817557
360 1 4.046 -4.78646939186 4.24440817557
361 1 4.046 -7.54993878371 4.98487756742
362 1 6.069 -5.79796939186 5.99637756742
363 1 6.069 -8.56143878371 6.73684695928
364 1 4.046 -6.80946939186 7.74834695928
365 1 4.046 -9.57293878371 8.48881635114
366 1 6.069 -7.82096939186 9.50031635114
367 1 6.069 -10.5844387837 10.240785743
368 1 4.046 -8.83246939186 11.252285743
369 1 4.046 -11.5959387837 11.9927551348
370 1 6.069 -9.84396939186 13.0042551348
371 1 6.069 -12.6074387837 13.7447245267
372 1 4.046 -10.8554693919 14.7562245267
373 1 4.046 -13.6189387837 15.4966939186
374 1 6.069 -11.8669693919 16.5081939186
375 1 6.069 -14.6304387837 17.2486633104
376 1 4.046 -12.8784693919 18.2601633104
377 1 4.046 -15.6419387837 19.0006327023
378 1 6.069 -13.8899693919 20.0121327023
379 1 6.069 -16.6534387837 20.7526020941
380 1 4.046 -14.9014693919 21.7641020941
381 1 4.046 -17.6649387837 22.504571486
382 1 6.069 -15.9129693919 23.516071486
383 1 6.069 -18.6764387837 24.2565408778
384 1 4.046 -16.9244693919 25.2680408778
385 1 4.046 0.0 0.0
386 1 6.069 1.75196939186 1.0115
387 1 6.069 -1.0115 1.75196939186
388 1 4.046 0.740469391856 2.76346939186
389 1 4.046 -2.023 3.50393878371
390 1 6.069 -0.271030608144 4.51543878371
391 1 6.069 -3.0345 5.25590817557
392 1 4.046 -1.28253060814 6.26740817557
393 1 4.046 -4.046 7.00787756742
394 1 6.069 -2.29403060814 8.01937756742
395 1 6.069 -5.0575 8.75984695928
396 1 4.046 -3.30553060814 9.77134695928
397 1 4.046 -6.069 10.5118163511
398 1 6.069 -4.31703060814 11.5233163511
399 1 6.069 -7.0805 12.263785743
400 1 4.046 -5.32853060814 13.275285743
401 1 4.046 -8.092 14.0157551348
402 1 6.069 -6.34003060814 15.0272551348
403 1 6.069 -9.1035 15.7677245267
404 1 4.046 -7.35153060814 16.7792245267
405 1 4.046 -10.115 17.5196939186
406 1 6.069 -8.36303060814 18.5311939186
407 1 6.069 -11.1265 19.2716633104
408 1 4.046 -9.37453060814 20.2831633104
409 1 4.046 -12.138 21.0236327023
410 1 6.069 -10.3860306081 22.0351327023
411 1 6.069 -13.1495 22.7756020941
412 1 4.046 -11.3975306081 23.7871020941
413 1 4.046 -14.161 24.527571486
414 1 6.069 -12.4090306081 25.539071486
415 1 6.069 -15.1725 26.2795408778
416 1 4.046 -13.4205306081 27.2910408778
417 1 4.046 3.50393878371 2.023
418 1 6.069 5.25590817557 3.0345
419 1 6.069 2.49243878371 3.77496939186
420 1 4.046 4.24440817557 4.78646939186
421 1 4.046 1.48093878371 5.52693878371
422 1 6.069 3.23290817557 6.53843878371
423 1 6.069 0.469438783712 7.27890817557
424 1 4.046 2.22140817557 8.29040817557
425 1 4.046 -0.542061216288 9.03087756742
426 1 6.069 1.20990817557 10.0423775674
427 1 6.069 -1.55356121629 10.7828469593
428 1 4.046 0.198408175568 11.7943469593
429 1 4.046 -2.56506121629 12.5348163511
430 1 6.069 -0.813091824432 13.5463163511
431 1 6.069 -3.57656121629 14.286785743
432 1 4.046 -1.82459182443 15.298285743
433 1 4.046 -4.58806121629 16.0387551348
434 1 6.069 -2.83609182443 17.0502551348
435 1 6.069 -5.59956121629 17.7907245267
436 1 4.046 -3.84759182443 18.8022245267
437 1 4.046 -6.61106121629 19.5426939186
438 1 6.069 -4.85909182443 20.5541939186
439 1 6.069 -7.62256121629 21.2946633104
440 1 4.046 -5.87059182443 22.3061633104
441 1 4.046 -8.63406121629 23.0466327023
442 1 6.069 -6.88209182443 24.0581327023
443 1 6.069 -9.64556121629 24.7986020941
444 1 4.046 -7.89359182443 25.8101020941
445 1 4.046 -10.6570612163 26.550571486
446 1 6.069 -8.90509182443 27.562071486
447 1 6.069 -11.6685612163 28.3025408778
448 1 4.046 -9.91659182443 29.3140408778
449 1 4.046 7.00787756742 4.046
450 1 6.069 8.75984695928 5.0575
451 1 6.069 5.99637756742 5.79796939186
452 1 4.046 7.74834695928 6.80946939186
453 1 4.046 4.98487756742 7.54993878371
454 1 6.069 6.73684695928 8.56143878371
455 1 6.069 3.97337756742 9.30190817557
456 1 4.046 5.72534695928 10.3134081756
457 1 4.046 2.96187756742 11.0538775674
458 1 6.069 4.71384695928 12.0653775674
459 1 6.069 1.95037756742 12.8058469593
460 1 4.046 3.70234695928 13.8173469593
461 1 4.046 0.938877567424 14.5578163511
462 1 6.069 2.69084695928 15.5693163511
463 1 6.069 -0.0726224325763 16.309785743
464 1 4.046 1.67934695928 17.321285743
465 1 4.046 -1.08412243258 18.0617551348
466 1 6.069 0.66784695928 19.0732551348
467 1 6.069 -2.09562243258 19.8137245267
468 1 4.046 -0.34365304072 20.8252245267
469 1 4.046 -3.10712243258 21.5656939186
470 1 6.069 -1.35515304072 22.5771939186
471 1 6.069 -4.11862243258 23.3176633104
472 1 4.046 -2.36665304072 24.3291633104
473 1 4.046 -5.13012243258 25.0696327023
474 1 6.069 -3.37815304072 26.0811327023
475 1 6.069 -6.14162243258 26.8216020941
476 1 4.046 -4.38965304072 27.8331020941
477 1 4.046 -7.15312243258 28.573571486
478 1 6.069 -5.40115304072 29.585071486
479 1 6.069 -8.16462243258 30.3255408778
480 1 4.046 -6.41265304072 31.3370408778
481 1 4.046 10.5118163511 6.069
482 1 6.069 12.263785743 7.0805
483 1 6.069 9.50031635114 7.82096939186
484 1 4.046 11.252285743 8.83246939186
485 1 4.046 8.48881635114 9.57293878371
486 1 6.069 10.240785743 10.5844387837
487 1 6.069 7.47731635114 11.3249081756
488 1 4.046 9.22928574299 12.3364081756
489 1 4.046 6.46581635114 13.0768775674
490 1 6.069 8.21778574299 14.0883775674
491 1 6.069 5.45431635114 14.8288469593
492 1 4.046 7.20628574299 15.8403469593
493 1 4.046 4.44281635114 16.5808163511
494 1 6.069 6.19478574299 17.5923163511
495 1 6.069 3.43131635114 18.332785743
496 1 4.046 5.18328574299 19.344285743
497 1 4.046 2.41981635114 20.0847551348
498 1 6.069 4.17178574299 21.0962551348
499 1 6.069 1.40831635114 21.8367245267
500 1 4.046 3.16028574299 22.8482245267
501 1 4.046 0.396816351136 23.5886939186
502 1 6.069 2.14878574299 24.6001939186
503 1 6.069 -0.614683648864 25.3406633104
504 1 4.046 1.13728574299 26.3521633104
505 1 4.046 -1.62618364886 27.0926327023
506 1 6.069 0.125785742991 28.1041327023
507 1 6.069 -2.63768364886 28.8446020941
508 1 4.046 -0.885714257009 29.8561020941
509 1 4.046 -3.64918364886 30.596571486
510 1 6.069 -1.89721425701 31.608071486
511 1 6.069 -4.66068364886 32.3485408778
512 1 4.046 -2.90871425701 33.3600408778
513 1 4.046 14.0157551348 8.092
514 1 6.069 15.7677245267 9.1035
515 1 6.069 13.0042551348 9.84396939186
516 1 4.046 14.7562245267 10.8554693919
517 1 4.046 11.9927551348 11.5959387837
518 1 6.069 13.7447245267 12.6074387837
519 1 6.069 10.9812551348 13.3479081756
520 1 4.046 12.7332245267 14.3594081756
521 1 4.046 9.96975513485 15.0998775674
522 1 6.069 11.7217245267 16.1113775674
523 1 6.069 8.95825513485 16.8518469593
524 1 4.046 10.7102245267 17.8633469593
525 1 4.046 7.94675513485 18.6038163511
526 1 6.069 9.6987245267 19.6153163511
527 1 6.069 6.93525513485 20.355785743
528 1 4.046 8.6872245267 21.367285743
529 1 4.046 5.92375513485 22.1077551348
530 1 6.069 7.6757245267 23.1192551348
531 1 6.069 4.91225513485 23.8597245267
532 1 4.046 6.6642245267 24.8712245267
533 1 4.046 3.90075513485 25.6116939186
534 1 6.069 5.6527245267 26.6231939186
535 1 6.069 2.88925513485 27.3636633104
536 1 4.046 4.6412245267 28.3751633104
537 1 4.046 1.87775513485 29.1156327023
538 1 6.069 3.6297245267 30.1271327023
539 1 6.069 0.866255134847 30.8676020941
540 1 4.046 2.6182245267 31.8791020941
541 1 4.046 -0.145244865153 32.619571486
542 1 6.069 1.6067245267 33.631071486
543 1 6.069 -1.15674486515 34.3715408778
544 1 4.046 0.595224526703 35.3830408778
545 1 4.046 17.5196939186 10.115
546 1 6.069 19.2716633104 11.1265
547 1 6.069 16.5081939186 11.8669693919
548 1 4.046 18.2601633104 12.8784693919
549 1 4.046 15.4966939186 13.6189387837
550 1 6.069 17.2486633104 14.6304387837
551 1 6.069 14.4851939186 15.3709081756
552 1 4.046 16.2371633104 16.3824081756
553 1 4.046 13.4736939186 17.1228775674
554 1 6.069 15.2256633104 18.1343775674
555 1 6.069 12.4621939186 18.8748469593
556 1 4.046 14.2141633104 19.8863469593
557 1 4.046 11.4506939186 20.6268163511
558 1 6.069 13.2026633104 21.6383163511
559 1 6.069 10.4391939186 22.378785743
560 1 4.046 12.1911633104 23.390285743
561 1 4.046 9.42769391856 24.1307551348
562 1 6.069 11.1796633104 25.1422551348
563 1 6.069 8.41619391856 25.8827245267
564 1 4.046 10.1681633104 26.8942245267
565 1 4.046 7.40469391856 27.6346939186
566 1 6.069 9.15666331042 28.6461939186
567 1 6.069 6.39319391856 29.3866633104
568 1 4.046 8.14516331042 30.3981633104
569 1 4.046 5.38169391856 31.1386327023
570 1 6.069 7.13366331042 32.1501327023
571 1 6.069 4.37019391856 32.8906020941
572 1 4.046 6.12216331042 33.9021020941
573 1 4.046 3.35869391856 34.642571486
574 1 6.069 5.11066331042 35.654071486
575 1 6.069 2.34719391856 36.3945408778
576 1 4.046 4.09916331042 37.4060408778
577 1 8.092 -10.5118163511 -6.069
578 1 10.115 -8.75984695928 -5.0575
579 1 10.115 -11.5233163511 -4.31703060814
580 1 8.092 -9.77134695928 -3.30553060814
581 1 8.092 -12.5348163511 -2.56506121629
582 1 10.115 -10.7828469593 -1.55356121629
583 1 10.115 -13.5463163511 -0.813091824432
584 1 8.092 -11.7943469593 0.198408175568
585 1 8.092 -14.5578163511 0.938877567424
586 1 10.115 -12.8058469593 1.95037756742
587 1 10.115 -15.5693163511 2.69084695928
588 1 8.092 -13.8173469593 3.70234695928
589 1 8.092 -16.5808163511 4.44281635114
590 1 10.115 -14.8288469593 5.45431635114
591 1 10.115 -17.5923163511 6.19478574299
592 1 8.092 -15.8403469593 7.20628574299
593 1 8.092 -18.6038163511 7.94675513485
594 1 10.115 -16.8518469593 8.95825513485
595 1 10.115 -19.6153163511 9.6987245267
596 1 8.092 -17.8633469593 10.7102245267
597 1 8.092 -20.6268163511 11.4506939186
598 1 10.115 -18.8748469593 12.4621939186
599 1 10.115 -21.6383163511 13.2026633104
600 1 8.092 -19.8863469593 14.2141633104
601 1 8.092 -22.6498163511 14.9546327023
602 1 10.115 -20.8978469593 15.9661327023
603 1 10.115 -23.6613163511 16.7066020941
604 1 8.092 -21.9093469593 17.7181020941
605 1 8.092 -24.6728163511 18.458571486
606 1 10.115 -22.9208469593 19.470071486
607 1 10.115 -25.6843163511 20.2105408778
608 1 8.092 -23.9323469593 21.2220408778
609 1 8.092 -7.00787756742 -4.046
610 1 10.115 -5.25590817557 -3.0345
611 1 10.115 -8.01937756742 -2.29403060814
612 1 8.092 -6.26740817557 -1.28253060814
613 1 8.092 -9.03087756742 -0.542061216288
614 1 10.115 -7.27890817557 0.469438783712
615 1 10.115 -10.0423775674 1.20990817557
616 1 8.092 -8.29040817557 2.22140817557
617 1 8.092 -11.0538775674 2.96187756742
618 1 10.115 -9.30190817557 3.97337756742
619 1 10.115 -12.0653775674 4.71384695928
620 1 8.092 -10.3134081756 5.72534695928
621 1 8.092 -13.0768775674 6.46581635114
622 1 10.115 -11.3249081756 7.47731635114
623 1 10.115 -14.0883775674 8.21778574299
624 1 8.092 -12.3364081756 9.22928574299
625 1 8.092 -15.0998775674 9.96975513485
626 1 10.115 -13.3479081756 10.9812551348
627 1 10.115 -16.1113775674 11.7217245267
628 1 8.092 -14.3594081756 12.7332245267
629 1 8.092 -17.1228775674 13.4736939186
630 1 10.115 -15.3709081756 14.4851939186
631 1 10.115 -18.1343775674 15.2256633104
632 1 8.092 -16.3824081756 16.2371633104
633 1 8.092 -19.1458775674 16.9776327023
634 1 10.115 -17.3939081756 17.9891327023
635 1 10.115 -20.1573775674 18.7296020941
636 1 8.092 -18.4054081756 19.7411020941
637 1 8.092 -21.1688775674 20.481571486
638 1 10.115 -19.4169081756 21.493071486
639 1 10.115 -22.1803775674 22.2335408778
640 1 8.092 -20.4284081756 23.2450408778
641 1 8.092 -3.50393878371 -2.023
642 1 10.115 -1.75196939186 -1.0115
643 1 10.115 -4.51543878371 -0.271030608144
644 1 8.092 -2.76346939186 0.740469391856
645 1 8.092 -5.52693878371 1.48093878371
646 1 10.115 -3.77496939186 2.49243878371
647 1 10.115 -6.53843878371 3.23290817557
648 1 8.092 -4.78646939186 4.24440817557
649 1 8.092 -7.54993878371 4.98487756742
650 1 10.115 -5.79796939186 5.99637756742
651 1 10.115 -8.56143878371 6.73684695928
652 1 8.092 -6.80946939186 7.74834695928
653 1 8.092 -9.57293878371 8.48881635114
654 1 10.115 -7.82096939186 9.50031635114
655 1 10.115 -10.5844387837 10.240785743
656 1 8.092 -8.83246939186 11.252285743
657 1 8.092 -11.5959387837 11.9927551348
658 1 10.115 -9.84396939186 13.0042551348
659 1 10.115 -12.6074387837 13.7447245267
660 1 8.092 -10.8554693919 14.7562245267
661 1 8.092 -13.6189387837 15.4966939186
662 1 10.115 -11.8669693919 16.5081939186
663 1 10.115 -14.6304387837 17.2486633104
664 1 8.092 -12.8784693919 18.2601633104
665 1 8.092 -15.6419387837 19.0006327023
666 1 10.115 -13.8899693919 20.0121327023
667 1 10.115 -16.6534387837 20.7526020941
668 1 8.092 -14.9014693919 21.7641020941
669 1 8.092 -17.6649387837 22.504571486
670 1 10.115 -15.9129693919 23.516071486
671 1 10.115 -18.6764387837 24.2565408778
672 1 8.092 -16.9244693919 25.2680408778
673 1 8.092 0.0 0.0
674 1 10.115 1.75196939186 1.0115
675 1 10.115 -1.0115 1.75196939186
676 1 8.092 0.740469391856 2.76346939186
677 1 8.092 -2.023 3.50393878371
678 1 10.115 -0.271030608144 4.51543878371
679 1 10.115 -3.0345 5.25590817557
680 1 8.092 -1.28253060814 6.26740817557
681 1 8.092 -4.046 7.00787756742
682 1 10.115 -2.29403060814 8.01937756742
683 1 10.115 -5.0575 8.75984695928
684 1 8.092 -3.30553060814 9.77134695928
685 1 8.092 -6.069 10.5118163511
686 1 10.115 -4.31703060814 11.5233163511
687 1 10.115 -7.0805 12.263785743
688 1 8.092 -5.32853060814 13.275285743
689 1 8.092 -8.092 14.0157551348
690 1 10.115 -6.34003060814 15.0272551348
691 1 10.115 -9.1035 15.7677245267
692 1 8.092 -7.35153060814 16.7792245267
693 1 8.092 -10.115 17.5196939186
694 1 10.115 -8.36303060814 18.5311939186
695 1 10.115 -11.1265 19.2716633104
696 1 8.092 -9.37453060814 20.2831633104
697 1 8.092 -12.138 21.0236327023
698 1 10.115 -10.3860306081 22.0351327023
699 1 10.115 -13.1495 22.7756020941
700 1 8.092 -11.3975306081 23.7871020941
701 1 8.092 -14.161 24.527571486
702 1 10.115 -12.4090306081 25.539071486
703 1 10.115 -15.1725 26.2795408778
704 1 8.092 -13.4205306081 27.2910408778
705 1 8.092 3.50393878371 2.023
706 1 10.115 5.25590817557 3.0345
707 1 10.115 2.49243878371 3.77496939186
708 1 8.092 4.24440817557 4.78646939186
709 1 8.092 1.48093878371 5.52693878371
710 1 10.115 3.23290817557 6.53843878371
711 1 10.115 0.469438783712 7.27890817557
712 1 8.092 2.22140817557 8.29040817557
713 1 8.092 -0.542061216288 9.03087756742
714 1 10.115 1.20990817557 10.0423775674
715 1 10.115 -1.55356121629 10.7828469593
716 1 8.092 0.198408175568 11.7943469593
717 1 8.092 -2.56506121629 12.5348163511
718 1 10.115 -0.813091824432 13.5463163511
719 1 10.115 -3.57656121629 14.286785743
720 1 8.092 -1.82459182443 15.298285743
721 1 8.092 -4.58806121629 16.0387551348
722 1 10.115 -2.83609182443 17.0502551348
723 1 10.115 -5.59956121629 17.7907245267
724 1 8.092 -3.84759182443 18.8022245267
725 1 8.092 -6.61106121629 19.5426939186
726 1 10.115 -4.85909182443 20.5541939186
727 1 10.115 -7.62256121629 21.2946633104
728 1 8.092 -5.87059182443 22.3061633104
729 1 8.092 -8.63406121629 23.0466327023
730 1 10.115 -6.88209182443 24.0581327023
731 1 10.115 -9.64556121629 24.7986020941
732 1 8.092 -7.89359182443 25.8101020941
733 1 8.092 -10.6570612163 26.550571486
734 1 10.115 -8.90509182443 27.562071486
735 1 10.115 -11.6685612163 28.3025408778
736 1 8.092 -9.91659182443 29.3140408778
737 1 8.092 7.00787756742 4.046
738 1 10.115 8.75984695928 5.0575
739 1 10.115 5.99637756742 5.79796939186
740 1 8.092 7.74834695928 6.80946939186
741 1 8.092 4.98487756742 7.54993878371
742 1 10.115 6.73684695928 8.56143878371
743 1 10.115 3.97337756742 9.30190817557
744 1 8.092 5.72534695928 10.3134081756
745 1 8.092 2.96187756742 11.0538775674
746 1 10.115 4.71384695928 12.0653775674
747 1 10.115 1.95037756742 12.8058469593
748 1 8.092 3.70234695928 13.8173469593
749 1 8.092 0.938877567424 14.5578163511
750 1 10.115 2.69084695928 15.5693163511
751 1 10.115 -0.0726224325763 16.309785743
752 1 8.092 1.67934695928 17.321285743
753 1 8.092 -1.08412243258 18.0617551348
754 1 10.115 0.66784695928 19.0732551348
755 1 10.115 -2.09562243258 19.8137245267
756 1 8.092 -0.34365304072 20.8252245267
757 1 8.092 -3.10712243258 21.5656939186
758 1 10.115 -1.35515304072 22.5771939186
759 1 10.115 -4.11862243258 23.3176633104