LAMMPS data file written for an EnCodeVentor tutorial

108 atoms
1 atom types
0.0 12.138 xlo xhi
0.0 12.138 ylo yhi
0.0 12.138 zlo zhi

Atoms

	1 1 0.0 0.0 0.0
	2 1 2.023 2.023 0.0
	3 1 2.023 0.0 2.023
	4 1 0.0 2.023 2.023
	5 1 0.0 0.0 4.046
	6 1 2.023 2.023 4.046
	7 1 2.023 0.0 6.069
	8 1 0.0 2.023 6.069
	9 1 0.0 0.0 8.092
	10 1 2.023 2.023 8.092
	11 1 2.023 0.0 10.115
	12 1 0.0 2.023 10.115
	13 1 0.0 4.046 0.0
	14 1 2.023 6.069 0.0
	15 1 2.023 4.046 2.023
	16 1 0.0 6.069 2.023
	17 1 0.0 4.046 4.046
	18 1 2.023 6.069 4.046
	19 1 2.023 4.046 6.069
	20 1 0.0 6.069 6.069
	21 1 0.0 4.046 8.092
	22 1 2.023 6.069 8.092
	23 1 2.023 4.046 10.115
	24 1 0.0 6.069 10.115
	25 1 0.0 8.092 0.0
	26 1 2.023 10.115 0.0
	27 1 2.023 8.092 2.023
	28 1 0.0 10.115 2.023
	29 1 0.0 8.092 4.046
	30 1 2.023 10.115 4.046
	31 1 2.023 8.092 6.069
	32 1 0.0 10.115 6.069
	33 1 0.0 8.092 8.092
	34 1 2.023 10.115 8.092
	35 1 2.023 8.092 10.115
	36 1 0.0 10.115 10.115
	37 1 4.046 0.0 0.0
	38 1 6.069 2.023 0.0
	39 1 6.069 0.0 2.023
	40 1 4.046 2.023 2.023
	41 1 4.046 0.0 4.046
	42 1 6.069 2.023 4.046
	43 1 6.069 0.0 6.069
	44 1 4.046 2.023 6.069
	45 1 4.046 0.0 8.092
	46 1 6.069 2.023 8.092
	47 1 6.069 0.0 10.115
	48 1 4.046 2.023 10.115
	49 1 4.046 4.046 0.0
	50 1 6.069 6.069 0.0
	51 1 6.069 4.046 2.023
	52 1 4.046 6.069 2.023
	53 1 4.046 4.046 4.046
	54 1 6.069 6.069 4.046
	55 1 6.069 4.046 6.069
	56 1 4.046 6.069 6.069
	57 1 4.046 4.046 8.092
	58 1 6.069 6.069 8.092
	59 1 6.069 4.046 10.115
	60 1 4.046 6.069 10.115
	61 1 4.046 8.092 0.0
	62 1 6.069 10.115 0.0
	63 1 6.069 8.092 2.023
	64 1 4.046 10.115 2.023
	65 1 4.046 8.092 4.046
	66 1 6.069 10.115 4.046
	67 1 6.069 8.092 6.069
	68 1 4.046 10.115 6.069
	69 1 4.046 8.092 8.092
	70 1 6.069 10.115 8.092
	71 1 6.069 8.092 10.115
	72 1 4.046 10.115 10.115
	73 1 8.092 0.0 0.0
	74 1 10.115 2.023 0.0
	75 1 10.115 0.0 2.023
	76 1 8.092 2.023 2.023
	77 1 8.092 0.0 4.046
	78 1 10.115 2.023 4.046
	79 1 10.115 0.0 6.069
	80 1 8.092 2.023 6.069
	81 1 8.092 0.0 8.092
	82 1 10.115 2.023 8.092
	83 1 10.115 0.0 10.115
	84 1 8.092 2.023 10.115
	85 1 8.092 4.046 0.0
	86 1 10.115 6.069 0.0
	87 1 10.115 4.046 2.023
	88 1 8.092 6.069 2.023
	89 1 8.092 4.046 4.046
	90 1 10.115 6.069 4.046
	91 1 10.115 4.046 6.069
	92 1 8.092 6.069 6.069
	93 1 8.092 4.046 8.092
	94 1 10.115 6.069 8.092
	95 1 10.115 4.046 10.115
	96 1 8.092 6.069 10.115
	97 1 8.092 8.092 0.0
	98 1 10.115 10.115 0.0
	99 1 10.115 8.092 2.023
	100 1 8.092 10.115 2.023
	101 1 8.092 8.092 4.046
	102 1 10.115 10.115 4.046
	103 1 10.115 8.092 6.069
	104 1 8.092 10.115 6.069
	105 1 8.092 8.092 8.092
	106 1 10.115 10.115 8.092
	107 1 10.115 8.092 10.115
	108 1 8.092 10.115 10.115
