LAMMPS data file written for an EnCodeVentor tutorial

100 atoms
1 atom types
0.0 10.0 xlo xhi
0.0 10.0 ylo yhi
0.0 10.0 zlo zhi

Atoms

	1 1 5.74125666297 7.06126607961 2.97750870851
	2 1 8.31311845106 7.48591189387 7.88640150263
	3 1 6.22979409869 5.1495531143 8.49826171464
	4 1 8.03737225792 0.243922840483 9.95644957522
	5 1 8.42271311253 6.69822422021 5.21318287974
	6 1 2.69545068968 3.29456257312 9.44262077431
	7 1 3.91184161558 4.44529121604 9.17260494737
	8 1 2.99554761294 0.48361325408 3.82421291162
	9 1 0.372745738437 9.22009506099 0.99380479646
	10 1 0.126010793862 0.957424061439 1.9922392622
	11 1 9.72396775931 4.0030853092 1.93137418781
	12 1 9.77577092828 2.18034602075 2.50924956831
	13 1 7.3394512323 0.0461791800233 6.80229896905
	14 1 3.68602610084 7.7747108924 8.23242253054
	15 1 9.25798721825 3.62367986566 6.62485818477
	16 1 4.91313284407 0.176854655928 9.20190823434
	17 1 1.40554656052 5.48276257338 6.32947416065
	18 1 8.23050302969 2.49827737975 1.47397983729
	19 1 3.23804695382 8.54331612011 3.66189307227
	20 1 7.74853527819 2.30525517891 6.86245373358
	21 1 7.33713864923 4.50700410375 7.6736746202
	22 1 6.09874591941 8.49856759566 1.34180420765
	23 1 2.78190533397 9.14129114859 4.85871419149
	24 1 0.360414732392 9.31507821388 5.366612628
	25 1 4.91376606605 7.41429234166 2.18641943221
	26 1 5.57879912684 3.76193317766 9.78383857552
	27 1 5.29603531075 7.1685069319 3.30181051117
	28 1 3.33617067897 3.07511874715 2.01210899589
	29 1 2.42143909749 0.0430113150372 4.68702062881
	30 1 3.56173727903 3.53047730618 7.43959535574
	31 1 4.70658103452 6.68091597292 1.34997391719
	32 1 2.92550253841 2.25691480928 8.62502736166
	33 1 8.96852538168 7.60283515071 6.66044292079
	34 1 4.4580973334 1.39054288877 8.04963311691
	35 1 2.86202200793 5.67626869617 2.4088234731
	36 1 6.66101597228 7.160135442 7.04028519684
	37 1 4.36262001175 2.0085453309 8.77793419182
	38 1 4.37076843229 7.01036932703 2.38061090192
	39 1 5.50700263665 7.48776629716 7.2625247543
	40 1 4.25724134678 4.85446984806 1.36337278152
	41 1 4.97494276937 0.12972535521 2.51003535607
	42 1 2.0685943536 7.71417099197 7.08233729841
	43 1 0.262876483751 5.28793183972 9.43013609359
	44 1 8.78820131707 5.18583004615 5.04719789977
	45 1 4.71621582832 6.60287333758 8.77046376219
	46 1 8.12471703049 9.78431318952 0.0101916835228
	47 1 7.51949557542 2.39771894462 3.87090114478
	48 1 9.82483953863 8.34993195448 4.00412713336
	49 1 7.870180573 5.6944261503 1.72312053014
	50 1 7.31866424142 7.53057910263 1.02401340592
	51 1 8.88815246421 3.13331876131 1.98647872183
	52 1 1.807202436 8.01974455159 1.46178296354
	53 1 8.03701010823 1.26229051752 8.56875157503
	54 1 6.29058589945 2.5785985054 4.98784681566
	55 1 7.75088199037 0.447928378114 7.84072701306
	56 1 1.34809185842 6.80061216451 6.84600381575
	57 1 2.50512387596 1.84783785003 0.788449693002
	58 1 5.77122966502 2.24306079811 4.49145840242
	59 1 6.58287453221 1.78333163441 5.98118465388
	60 1 1.27094177194 5.67084042492 8.4510704431
	61 1 2.29872474644 8.62257287993 3.31467994349
	62 1 7.09069015669 1.68384100904 1.09389231826
	63 1 7.70978242933 1.84516910143 0.271626667245
	64 1 4.18688408199 0.359776220301 4.45156156353
	65 1 0.9925482682 7.39463330208 5.48770935962
	66 1 1.35347196241 4.36015129504 1.02735976934
	67 1 9.19453473424 7.69062550288 3.31206904638
	68 1 7.49035726741 4.70695923747 4.86264473211
	69 1 8.67414495813 2.73400301422 6.18836820174
	70 1 5.88690248477 2.68408928318 1.05102430735
	71 1 3.46817806609 1.76904546132 6.89538341009
	72 1 1.08310507548 6.31910261442 3.6777925905
	73 1 3.64467265903 8.62731200577 0.19112343592
	74 1 3.19103476266 4.98606448501 0.523027863461
	75 1 7.12132720283 7.47259090839 5.89697793207
	76 1 9.58701989326 3.30555460641 6.99806159462
	77 1 8.64514296337 0.820770334058 9.42392524174
	78 1 3.79718866001 1.39315744584 0.595289719098
	79 1 4.24028998058 3.88888859759 8.45438058451
	80 1 6.62585747871 8.03407944647 6.42058841652
	81 1 0.552576967158 0.683068719538 8.79396494126
	82 1 0.501151455993 6.89748564914 1.30966096379
	83 1 5.94317856958 7.9540776911 7.68564635764
	84 1 8.61756349209 3.80311187511 1.82853008842
	85 1 6.17267275663 5.2367659929 7.66057122605
	86 1 7.58799989248 6.16793829342 1.8569230974
	87 1 8.04444236535 1.71472209836 9.57541523577
	88 1 5.8067491735 2.10856376622 6.07382998382
	89 1 0.898882686483 7.96590326091 0.436119131654
	90 1 4.19205108985 7.86011602187 4.23409339313
	91 1 1.99455800307 3.79306639537 8.92223569173
	92 1 6.05317095314 9.57165516576 8.22319624891
	93 1 6.3688902747 5.6486058378 6.48870011118
	94 1 6.09649499534 9.96981877112 9.13227983869
	95 1 9.08868170559 8.15380142221 8.06295342549
	96 1 6.66825479984 4.21944039453 3.7385245301
	97 1 2.11753369313 4.09092586604 7.05200858423
	98 1 4.85008867136 2.16225256279 7.88726104431
	99 1 4.63703458811 2.75674849783 2.36499596287
	100 1 7.3695401027 8.18667710884 6.26871647124
